REMARK SMILES CC(C)c1ccc2oc3nc(N)c(C(=O)O)cc3c(=O)c2c1
REMARK SMILES IDX 4 1 22 2 21 3 7 4 6 5 5 6 8 7 9 8 10 9 11 10 13 11 17 12
REMARK SMILES IDX 18 13 19 14 20 15 2 16 1 17 3 18 14 19 15 20 16 21 12 23
REMARK H PARENT 16 22 12 24 12 25
ROOT
ATOM      1  C   UNL     1       2.981  -0.223   0.530  1.00  0.00    -0.044 A 
ATOM      2  C   UNL     1       1.945   0.109  -0.356  1.00  0.00    +0.020 A 
ATOM      3  C   UNL     1       0.610   0.003   0.050  1.00  0.00    +0.066 A 
ATOM      4  C   UNL     1       0.288  -0.433   1.331  1.00  0.00    +0.140 A 
ATOM      5  C   UNL     1       1.309  -0.766   2.219  1.00  0.00    +0.048 A 
ATOM      6  C   UNL     1       2.646  -0.662   1.821  1.00  0.00    +0.008 A 
ATOM      7  O   UNL     1      -0.997  -0.563   1.794  1.00  0.00    -0.437 OA
ATOM      8  C   UNL     1      -2.034  -0.234   0.952  1.00  0.00    +0.232 A 
ATOM      9  N   UNL     1      -3.261  -0.384   1.506  1.00  0.00    -0.195 NA
ATOM     10  C   UNL     1      -4.343  -0.087   0.752  1.00  0.00    +0.142 A 
ATOM     11  C   UNL     1      -4.235   0.360  -0.568  1.00  0.00    +0.103 A 
ATOM     12  C   UNL     1      -2.961   0.520  -1.121  1.00  0.00    +0.037 A 
ATOM     13  C   UNL     1      -1.848   0.213  -0.344  1.00  0.00    +0.086 A 
ATOM     14  C   UNL     1      -0.486   0.346  -0.865  1.00  0.00    +0.202 C 
ATOM     15  O   UNL     1      -0.279   0.722  -2.010  1.00  0.00    -0.288 OA
ENDROOT
BRANCH   1  16
ATOM     16  C   UNL     1       4.441  -0.119   0.123  1.00  0.00    +0.013 C 
ATOM     17  C   UNL     1       4.770  -1.058  -1.040  1.00  0.00    +0.012 C 
ATOM     18  C   UNL     1       4.829   1.323  -0.214  1.00  0.00    +0.012 C 
ENDBRANCH   1  16
BRANCH  11  19
ATOM     19  C   UNL     1      -5.396   0.675  -1.421  1.00  0.00    +0.339 C 
ATOM     20  O   UNL     1      -5.395   1.460  -2.351  1.00  0.00    -0.246 OA
BRANCH  19  21
ATOM     21  O   UNL     1      -6.481  -0.074  -1.143  1.00  0.00    -0.478 OA
ATOM     22  H   UNL     1      -7.141   0.228  -1.805  1.00  0.00    +0.297 HD
ENDBRANCH  19  21
ENDBRANCH  11  19
BRANCH  10  23
ATOM     23  N   UNL     1      -5.554  -0.168   1.432  1.00  0.00    -0.383 N 
ATOM     24  H   UNL     1      -5.399  -0.608   2.334  1.00  0.00    +0.158 HD
ATOM     25  H   UNL     1      -6.273  -0.620   0.870  1.00  0.00    +0.158 HD
ENDBRANCH  10  23
TORSDOF 4
