REMARK SMILES N#CC[C@H](C1CCCC1)n1cc(-c2ncnc3[nH]ccc23)cn1
REMARK SMILES IDX 10 1 11 2 12 3 22 4 23 5 4 6 5 7 7 8 8 9 6 10 9 11 3 12 2 13
REMARK SMILES IDX 1 14 13 15 21 16 14 17 20 18 17 19 15 20 19 21 18 22 16 23
REMARK H PARENT 18 24
ROOT
ATOM      1  N   UNL     1      -0.370  -0.835   0.642  1.00  0.00    -0.268 N 
ATOM      2  C   UNL     1       0.819  -0.162   0.549  1.00  0.00    +0.119 A 
ATOM      3  C   UNL     1       1.694  -1.004  -0.105  1.00  0.00    +0.039 A 
ATOM      4  C   UNL     1       0.917  -2.150  -0.383  1.00  0.00    +0.145 A 
ATOM      5  N   UNL     1      -0.325  -2.063   0.103  1.00  0.00    -0.181 NA
ENDROOT
BRANCH   1   6
ATOM      6  C   UNL     1      -1.600  -0.338   1.262  1.00  0.00    +0.124 C 
BRANCH   6   7
ATOM      7  C   UNL     1      -2.324   0.677   0.346  1.00  0.00    +0.015 C 
ATOM      8  C   UNL     1      -4.291   1.844  -0.339  1.00  0.00    +0.000 C 
ATOM      9  C   UNL     1      -4.021   0.809  -1.421  1.00  0.00    +0.000 C 
ATOM     10  C   UNL     1      -3.642   1.233   0.892  1.00  0.00    +0.006 C 
ATOM     11  C   UNL     1      -2.647   0.224  -1.090  1.00  0.00    +0.006 C 
ENDBRANCH   6   7
BRANCH   6  12
ATOM     12  C   UNL     1      -2.435  -1.453   1.919  1.00  0.00    +0.147 C 
ATOM     13  C   UNL     1      -3.275  -2.234   1.004  1.00  0.00    +0.064 C 
ATOM     14  N   UNL     1      -4.007  -2.832   0.329  1.00  0.00    -0.198 NA
ENDBRANCH   6  12
ENDBRANCH   1   6
BRANCH   3  15
ATOM     15  C   UNL     1       3.058  -0.719  -0.485  1.00  0.00    +0.086 A 
ATOM     16  C   UNL     1       3.903   0.127   0.243  1.00  0.00    +0.045 A 
ATOM     17  N   UNL     1       3.524  -1.339  -1.598  1.00  0.00    -0.235 NA
ATOM     18  C   UNL     1       3.863   0.904   1.438  1.00  0.00    +0.032 A 
ATOM     19  C   UNL     1       5.181   0.288  -0.279  1.00  0.00    +0.141 A 
ATOM     20  C   UNL     1       4.788  -1.082  -1.981  1.00  0.00    +0.224 A 
ATOM     21  C   UNL     1       5.089   1.519   1.589  1.00  0.00    +0.085 A 
ATOM     22  N   UNL     1       5.878   1.137   0.536  1.00  0.00    -0.346 N 
ATOM     23  N   UNL     1       5.684  -0.279  -1.385  1.00  0.00    -0.219 NA
ATOM     24  H   UNL     1       6.835   1.414   0.369  1.00  0.00    +0.167 HD
ENDBRANCH   3  15
TORSDOF 4
