REMARK SMILES C[C@@H]1CCN(C(=O)CC#N)C[C@@H]1N(C)c1ncnc2[nH]ccc12
REMARK SMILES IDX 1 1 2 2 3 3 4 4 5 5 11 6 12 7 13 8 14 9 15 10 16 11 23 12
REMARK SMILES IDX 17 13 19 14 22 15 18 16 20 17 21 18 6 20 7 21 8 22 9 23
REMARK SMILES IDX 10 24
REMARK H PARENT 20 19
ROOT
ATOM      1  C   UNL     1       0.716   0.134   2.711  1.00  0.00    +0.010 C 
ATOM      2  C   UNL     1      -0.092   0.661   1.521  1.00  0.00    +0.012 C 
ATOM      3  C   UNL     1      -1.559   0.910   1.944  1.00  0.00    +0.027 C 
ATOM      4  C   UNL     1      -2.345  -0.389   2.123  1.00  0.00    +0.120 C 
ATOM      5  N   UNL     1      -2.287  -1.186   0.899  1.00  0.00    -0.340 N 
ATOM      6  C   UNL     1      -0.924  -1.526   0.469  1.00  0.00    +0.144 C 
ATOM      7  C   UNL     1      -0.070  -0.248   0.254  1.00  0.00    +0.105 C 
ENDROOT
BRANCH   7   8
ATOM      8  N   UNL     1       1.274  -0.550  -0.293  1.00  0.00    -0.354 N 
ATOM      9  C   UNL     1       2.056  -1.661   0.243  1.00  0.00    +0.145 C 
BRANCH   8  10
ATOM     10  C   UNL     1       2.058   0.575  -0.602  1.00  0.00    +0.141 A 
ATOM     11  N   UNL     1       3.260   0.739   0.019  1.00  0.00    -0.219 NA
ATOM     12  C   UNL     1       1.685   1.560  -1.545  1.00  0.00    +0.061 A 
ATOM     13  C   UNL     1       4.002   1.830  -0.252  1.00  0.00    +0.226 A 
ATOM     14  C   UNL     1       2.555   2.628  -1.718  1.00  0.00    +0.142 A 
ATOM     15  C   UNL     1       0.612   1.774  -2.461  1.00  0.00    +0.033 A 
ATOM     16  N   UNL     1       3.724   2.833  -1.096  1.00  0.00    -0.218 NA
ATOM     17  N   UNL     1       2.026   3.471  -2.657  1.00  0.00    -0.346 N 
ATOM     18  C   UNL     1       0.843   2.962  -3.123  1.00  0.00    +0.085 A 
ATOM     19  H   UNL     1       2.473   4.324  -2.959  1.00  0.00    +0.167 HD
ENDBRANCH   8  10
ENDBRANCH   7   8
BRANCH   5  20
ATOM     20  C   UNL     1      -3.438  -1.315   0.128  1.00  0.00    +0.236 C 
ATOM     21  O   UNL     1      -4.514  -0.823   0.480  1.00  0.00    -0.274 OA
BRANCH  20  22
ATOM     22  C   UNL     1      -3.376  -2.102  -1.161  1.00  0.00    +0.220 C 
ATOM     23  C   UNL     1      -2.927  -1.244  -2.255  1.00  0.00    +0.072 C 
ATOM     24  N   UNL     1      -2.544  -0.579  -3.126  1.00  0.00    -0.198 NA
ENDBRANCH  20  22
ENDBRANCH   5  20
TORSDOF 4
