REMARK SMILES Cc1c(OC(=O)C(C)C)cc(C(=O)CC(C)CC(=O)O)c(C)c1C
REMARK SMILES IDX 12 1 13 2 11 3 3 4 2 5 10 6 23 7 21 8 1 9 24 10 22 11 4 12
REMARK SMILES IDX 5 13 6 14 7 15 8 16 9 17 14 18 15 19 16 20 17 21 18 22 19 23
REMARK SMILES IDX 20 24
REMARK H PARENT 20 25
ROOT
ATOM      1  C   UNL     1       1.479   1.129   0.767  1.00  0.00    +0.163 C 
ATOM      2  O   UNL     1       1.276   1.923   1.679  1.00  0.00    -0.294 OA
ENDROOT
BRANCH   1   3
ATOM      3  C   UNL     1       0.359   0.767  -0.130  1.00  0.00    +0.024 A 
ATOM      4  C   UNL     1      -1.743  -0.368  -0.353  1.00  0.00    +0.134 A 
ATOM      5  C   UNL     1      -1.784  -0.099  -1.731  1.00  0.00    -0.005 A 
ATOM      6  C   UNL     1      -0.678   0.036   0.444  1.00  0.00    +0.059 A 
ATOM      7  C   UNL     1      -0.720   0.639  -2.313  1.00  0.00    -0.041 A 
ATOM      8  C   UNL     1       0.336   1.125  -1.494  1.00  0.00    -0.037 A 
ATOM      9  C   UNL     1      -2.933  -0.597  -2.571  1.00  0.00    +0.049 C 
ATOM     10  C   UNL     1      -0.741   0.966  -3.790  1.00  0.00    +0.045 C 
ATOM     11  C   UNL     1       1.420   2.000  -2.075  1.00  0.00    +0.045 C 
BRANCH   4  12
ATOM     12  O   UNL     1      -2.745  -1.133   0.255  1.00  0.00    -0.426 OA
BRANCH  12  13
ATOM     13  C   UNL     1      -3.767  -0.363   0.809  1.00  0.00    +0.313 C 
ATOM     14  O   UNL     1      -3.862   0.856   0.765  1.00  0.00    -0.252 OA
BRANCH  13  15
ATOM     15  C   UNL     1      -4.761  -1.293   1.485  1.00  0.00    +0.093 C 
ATOM     16  C   UNL     1      -6.106  -0.598   1.677  1.00  0.00    +0.019 C 
ATOM     17  C   UNL     1      -4.197  -1.768   2.818  1.00  0.00    +0.019 C 
ENDBRANCH  13  15
ENDBRANCH  12  13
ENDBRANCH   4  12
ENDBRANCH   1   3
BRANCH   1  18
ATOM     18  C   UNL     1       2.799   0.409   0.544  1.00  0.00    +0.085 C 
BRANCH  18  19
ATOM     19  C   UNL     1       4.018   1.269   0.924  1.00  0.00    +0.005 C 
ATOM     20  C   UNL     1       4.289   1.232   2.432  1.00  0.00    +0.009 C 
BRANCH  19  21
ATOM     21  C   UNL     1       5.271   0.865   0.130  1.00  0.00    +0.126 C 
BRANCH  21  22
ATOM     22  C   UNL     1       5.745  -0.537   0.402  1.00  0.00    +0.303 C 
ATOM     23  O   UNL     1       6.584  -0.871   1.221  1.00  0.00    -0.252 OA
BRANCH  22  24
ATOM     24  O   UNL     1       5.127  -1.457  -0.363  1.00  0.00    -0.481 OA
ATOM     25  H   UNL     1       5.533  -2.305  -0.082  1.00  0.00    +0.296 HD
ENDBRANCH  22  24
ENDBRANCH  21  22
ENDBRANCH  19  21
ENDBRANCH  18  19
ENDBRANCH   1  18
TORSDOF 9
