REMARK SMILES Cc1nc(N)nc(NCCSCc2ccc(CN(C)C)cc2)n1
REMARK SMILES IDX 10 1 9 2 8 3 7 5 2 6 3 7 23 8 4 9 6 10 1 11 5 12 11 15 12 16
REMARK SMILES IDX 13 17 14 18 22 19 15 20 21 21 16 22 17 23 18 24 19 25 20 26
REMARK H PARENT 8 4 5 13 5 14
ROOT
ATOM      1  C   UNL     1       1.036  -0.738  -2.485  1.00  0.00    +0.091 C 
ENDROOT
BRANCH   1   2
ATOM      2  C   UNL     1       2.060   0.052  -1.661  1.00  0.00    +0.127 C 
BRANCH   2   3
ATOM      3  N   UNL     1       3.340  -0.640  -1.629  1.00  0.00    -0.353 N 
ATOM      4  H   UNL     1       3.273  -1.644  -1.479  1.00  0.00    +0.163 HD
BRANCH   3   5
ATOM      5  C   UNL     1       4.241  -0.153  -0.692  1.00  0.00    +0.227 A 
ATOM      6  C   UNL     1       5.196   1.517   0.473  1.00  0.00    +0.133 A 
ATOM      7  N   UNL     1       6.015   0.682   1.108  1.00  0.00    -0.198 NA
ATOM      8  N   UNL     1       4.281   1.147  -0.422  1.00  0.00    -0.198 NA
ATOM      9  C   UNL     1       5.873  -0.592   0.779  1.00  0.00    +0.225 A 
ATOM     10  N   UNL     1       5.018  -1.059  -0.117  1.00  0.00    -0.177 NA
ATOM     11  C   UNL     1       5.275   2.969   0.824  1.00  0.00    +0.090 C 
BRANCH   9  12
ATOM     12  N   UNL     1       6.708  -1.502   1.397  1.00  0.00    -0.368 N 
ATOM     13  H   UNL     1       6.822  -2.318   0.811  1.00  0.00    +0.159 HD
ATOM     14  H   UNL     1       7.550  -1.040   1.712  1.00  0.00    +0.159 HD
ENDBRANCH   9  12
ENDBRANCH   3   5
ENDBRANCH   2   3
ENDBRANCH   1   2
BRANCH   1  15
ATOM     15  S   UNL     1       0.754  -2.455  -1.898  1.00  0.00    -0.155 SA
BRANCH  15  16
ATOM     16  C   UNL     1       0.081  -2.152  -0.231  1.00  0.00    +0.105 C 
BRANCH  16  17
ATOM     17  C   UNL     1      -1.166  -1.304  -0.211  1.00  0.00    -0.038 A 
ATOM     18  C   UNL     1      -2.338  -1.733  -0.848  1.00  0.00    +0.005 A 
ATOM     19  C   UNL     1      -1.181  -0.079   0.469  1.00  0.00    +0.005 A 
ATOM     20  C   UNL     1      -3.493  -0.947  -0.822  1.00  0.00    +0.005 A 
ATOM     21  C   UNL     1      -2.337   0.706   0.496  1.00  0.00    +0.005 A 
ATOM     22  C   UNL     1      -3.507   0.281  -0.148  1.00  0.00    -0.034 A 
BRANCH  22  23
ATOM     23  C   UNL     1      -4.759   1.133  -0.120  1.00  0.00    +0.119 C 
BRANCH  23  24
ATOM     24  N   UNL     1      -5.699   0.907   0.988  1.00  0.00    -0.305 NA
ATOM     25  C   UNL     1      -5.139   1.223   2.296  1.00  0.00    +0.105 C 
ATOM     26  C   UNL     1      -6.295  -0.425   0.977  1.00  0.00    +0.105 C 
ENDBRANCH  23  24
ENDBRANCH  22  23
ENDBRANCH  16  17
ENDBRANCH  15  16
ENDBRANCH   1  15
TORSDOF 9
