REMARK SMILES CC(N)CCc1ccccc1
REMARK SMILES IDX 1 1 2 2 3 3 4 6 5 7 6 8 7 9 11 10 8 11 10 12 9 13
REMARK H PARENT 3 4 3 5
ROOT
ATOM      1  C   UNL     1      -3.524   0.579  -0.195  1.00  0.00    +0.024 C 
ATOM      2  C   UNL     1      -2.439  -0.161   0.586  1.00  0.00    +0.047 C 
ENDROOT
BRANCH   2   3
ATOM      3  N   UNL     1      -2.717  -1.598   0.571  1.00  0.00    -0.328 NA
ATOM      4  H   UNL     1      -2.729  -1.936  -0.391  1.00  0.00    +0.119 HD
ATOM      5  H   UNL     1      -3.653  -1.769   0.938  1.00  0.00    +0.119 HD
ENDBRANCH   2   3
BRANCH   2   6
ATOM      6  C   UNL     1      -1.050   0.134  -0.003  1.00  0.00    +0.023 C 
BRANCH   6   7
ATOM      7  C   UNL     1       0.086  -0.489   0.815  1.00  0.00    +0.037 C 
BRANCH   7   8
ATOM      8  C   UNL     1       1.438  -0.109   0.260  1.00  0.00    -0.048 A 
ATOM      9  C   UNL     1       2.100   1.037   0.721  1.00  0.00    +0.004 A 
ATOM     10  C   UNL     1       2.036  -0.882  -0.744  1.00  0.00    +0.004 A 
ATOM     11  C   UNL     1       3.341   1.397   0.193  1.00  0.00    +0.000 A 
ATOM     12  C   UNL     1       3.277  -0.521  -1.271  1.00  0.00    +0.000 A 
ATOM     13  C   UNL     1       3.929   0.618  -0.801  1.00  0.00    +0.000 A 
ENDBRANCH   7   8
ENDBRANCH   6   7
ENDBRANCH   2   6
TORSDOF 4
