REMARK SMILES O=C(O)Cc1ccccc1Nc1c(Cl)cccc1Cl
REMARK SMILES IDX 5 1 6 2 7 3 8 4 9 5 10 6 4 7 2 8 1 9 3 10 11 12 12 14 13 15
REMARK SMILES IDX 18 16 15 17 17 18 16 19 14 20 19 21
REMARK H PARENT 3 11 11 13
ROOT
ATOM      1  C   UNL     1      -2.074   0.073   0.210  1.00  0.00    -0.013 A 
ATOM      2  C   UNL     1      -3.204  -0.701  -0.110  1.00  0.00    +0.006 A 
ATOM      3  C   UNL     1      -3.076  -1.879  -0.844  1.00  0.00    +0.000 A 
ATOM      4  C   UNL     1      -1.820  -2.298  -1.270  1.00  0.00    +0.002 A 
ATOM      5  C   UNL     1      -0.690  -1.540  -0.962  1.00  0.00    +0.026 A 
ATOM      6  C   UNL     1      -0.797  -0.359  -0.210  1.00  0.00    +0.042 A 
ENDROOT
BRANCH   1   7
ATOM      7  C   UNL     1      -2.252   1.331   1.036  1.00  0.00    +0.160 C 
BRANCH   7   8
ATOM      8  C   UNL     1      -1.929   2.608   0.300  1.00  0.00    +0.307 C 
ATOM      9  O   UNL     1      -1.244   2.750  -0.701  1.00  0.00    -0.252 OA
BRANCH   8  10
ATOM     10  O   UNL     1      -2.459   3.692   0.909  1.00  0.00    -0.481 OA
ATOM     11  H   UNL     1      -2.160   4.443   0.355  1.00  0.00    +0.296 HD
ENDBRANCH   8  10
ENDBRANCH   7   8
ENDBRANCH   1   7
BRANCH   6  12
ATOM     12  N   UNL     1       0.335   0.464   0.049  1.00  0.00    -0.353 N 
ATOM     13  H   UNL     1       0.230   1.301  -0.545  1.00  0.00    +0.167 HD
BRANCH  12  14
ATOM     14  C   UNL     1       1.697   0.043   0.034  1.00  0.00    +0.076 A 
ATOM     15  C   UNL     1       2.188  -0.964   0.891  1.00  0.00    +0.066 A 
ATOM     16  C   UNL     1       2.610   0.634  -0.864  1.00  0.00    +0.066 A 
ATOM     17  C   UNL     1       3.527  -1.373   0.830  1.00  0.00    +0.023 A 
ATOM     18  C   UNL     1       3.947   0.225  -0.922  1.00  0.00    +0.023 A 
ATOM     19  C   UNL     1       4.404  -0.782  -0.077  1.00  0.00    +0.003 A 
ATOM     20 Cl   UNL     1       1.199  -1.709   2.103  1.00  0.00    -0.082 Cl
ATOM     21 Cl   UNL     1       2.104   1.887  -1.945  1.00  0.00    -0.082 Cl
ENDBRANCH  12  14
ENDBRANCH   6  12
TORSDOF 5
