REMARK SMILES NCCC(C(=O)O)c1ccc(Cl)cc1
REMARK SMILES IDX 3 1 2 2 1 3 4 6 8 7 9 8 14 9 10 10 13 11 11 12 12 13 5 14
REMARK SMILES IDX 6 15 7 16
REMARK H PARENT 1 4 1 5 7 17
ROOT
ATOM      1  C   UNL     1      -1.329   0.545  -0.431  1.00  0.00    +0.035 C 
ENDROOT
BRANCH   1   2
ATOM      2  C   UNL     1      -2.794   0.546   0.014  1.00  0.00    +0.079 C 
BRANCH   2   3
ATOM      3  N   UNL     1      -3.570   1.458  -0.819  1.00  0.00    -0.330 NA
ATOM      4  H   UNL     1      -4.535   1.481  -0.492  1.00  0.00    +0.118 HD
ATOM      5  H   UNL     1      -3.214   2.409  -0.721  1.00  0.00    +0.118 HD
ENDBRANCH   2   3
ENDBRANCH   1   2
BRANCH   1   6
ATOM      6  C   UNL     1      -0.458  -0.373   0.447  1.00  0.00    +0.130 C 
BRANCH   6   7
ATOM      7  C   UNL     1       1.030  -0.119   0.234  1.00  0.00    -0.034 A 
ATOM      8  C   UNL     1       1.846   0.212   1.329  1.00  0.00    +0.006 A 
ATOM      9  C   UNL     1       1.618  -0.212  -1.039  1.00  0.00    +0.006 A 
ATOM     10  C   UNL     1       3.212   0.450   1.154  1.00  0.00    +0.021 A 
ATOM     11  C   UNL     1       2.984   0.025  -1.213  1.00  0.00    +0.021 A 
ATOM     12  C   UNL     1       3.775   0.356  -0.116  1.00  0.00    +0.041 A 
ATOM     13 Cl   UNL     1       5.457   0.649  -0.330  1.00  0.00    -0.084 Cl
ENDBRANCH   6   7
BRANCH   6  14
ATOM     14  C   UNL     1      -0.822  -1.829   0.207  1.00  0.00    +0.311 C 
ATOM     15  O   UNL     1      -0.510  -2.530  -0.742  1.00  0.00    -0.252 OA
BRANCH  14  16
ATOM     16  O   UNL     1      -1.618  -2.328   1.178  1.00  0.00    -0.481 OA
ATOM     17  H   UNL     1      -1.775  -3.254   0.895  1.00  0.00    +0.296 HD
ENDBRANCH  14  16
ENDBRANCH   6  14
ENDBRANCH   1   6
TORSDOF 6
