REMARK SMILES CC(C)NCC(O)COc1cccc2ccccc12
REMARK SMILES IDX 5 1 4 2 2 4 1 5 3 6 6 7 7 8 8 10 9 11 10 12 11 13 19 14
REMARK SMILES IDX 12 15 18 16 14 17 13 18 17 19 15 20 16 21
REMARK H PARENT 4 3 7 9
ROOT
ATOM      1  C   UNL     1       2.463  -0.526   0.368  1.00  0.00    +0.116 C 
ENDROOT
BRANCH   1   2
ATOM      2  N   UNL     1       3.373   0.588   0.077  1.00  0.00    -0.312 NA
ATOM      3  H   UNL     1       2.987   1.201  -0.638  1.00  0.00    +0.123 HD
BRANCH   2   4
ATOM      4  C   UNL     1       4.734   0.168  -0.259  1.00  0.00    +0.047 C 
ATOM      5  C   UNL     1       5.648   1.386  -0.112  1.00  0.00    +0.024 C 
ATOM      6  C   UNL     1       4.833  -0.385  -1.682  1.00  0.00    +0.024 C 
ENDBRANCH   2   4
ENDBRANCH   1   2
BRANCH   1   7
ATOM      7  C   UNL     1       1.031  -0.041   0.679  1.00  0.00    +0.165 C 
BRANCH   7   8
ATOM      8  O   UNL     1       1.016   0.721   1.895  1.00  0.00    -0.388 OA
ATOM      9  H   UNL     1       0.080   0.930   2.072  1.00  0.00    +0.211 HD
ENDBRANCH   7   8
BRANCH   7  10
ATOM     10  C   UNL     1       0.082  -1.238   0.840  1.00  0.00    +0.262 C 
BRANCH  10  11
ATOM     11  O   UNL     1      -1.254  -0.783   1.082  1.00  0.00    -0.490 OA
BRANCH  11  12
ATOM     12  C   UNL     1      -2.089  -0.523   0.023  1.00  0.00    +0.127 A 
ATOM     13  C   UNL     1      -1.701  -0.572  -1.320  1.00  0.00    +0.047 A 
ATOM     14  C   UNL     1      -3.422  -0.169   0.361  1.00  0.00    +0.024 A 
ATOM     15  C   UNL     1      -2.616  -0.281  -2.330  1.00  0.00    +0.004 A 
ATOM     16  C   UNL     1      -3.882  -0.096   1.695  1.00  0.00    +0.012 A 
ATOM     17  C   UNL     1      -4.343   0.126  -0.674  1.00  0.00    -0.015 A 
ATOM     18  C   UNL     1      -3.926   0.065  -2.010  1.00  0.00    +0.009 A 
ATOM     19  C   UNL     1      -5.200   0.256   1.996  1.00  0.00    +0.001 A 
ATOM     20  C   UNL     1      -5.666   0.479  -0.356  1.00  0.00    +0.009 A 
ATOM     21  C   UNL     1      -6.091   0.543   0.971  1.00  0.00    +0.001 A 
ENDBRANCH  11  12
ENDBRANCH  10  11
ENDBRANCH   7  10
ENDBRANCH   1   7
TORSDOF 7
