REMARK SMILES CN(C)CCOC(c1ccccc1)c1ccccc1
REMARK SMILES IDX 5 1 4 2 2 3 1 4 3 5 6 6 7 7 8 8 9 9 13 10 10 11 12 12 11 13
REMARK SMILES IDX 14 14 15 15 19 16 16 17 18 18 17 19
REMARK H PARENT
ROOT
ATOM      1  C   UNL     1      -1.688   0.871   0.851  1.00  0.00    +0.177 C 
ENDROOT
BRANCH   1   2
ATOM      2  C   UNL     1      -2.647   0.442  -0.281  1.00  0.00    +0.112 C 
BRANCH   2   3
ATOM      3  N   UNL     1      -2.882  -1.010  -0.402  1.00  0.00    -0.307 NA
ATOM      4  C   UNL     1      -3.721  -1.294  -1.567  1.00  0.00    +0.105 C 
ATOM      5  C   UNL     1      -3.489  -1.570   0.805  1.00  0.00    +0.105 C 
ENDBRANCH   2   3
ENDBRANCH   1   2
BRANCH   1   6
ATOM      6  O   UNL     1      -0.489   0.099   0.943  1.00  0.00    -0.367 OA
BRANCH   6   7
ATOM      7  C   UNL     1       0.440   0.288  -0.137  1.00  0.00    +0.178 C 
BRANCH   7   8
ATOM      8  C   UNL     1       1.307  -0.966  -0.277  1.00  0.00    -0.015 A 
ATOM      9  C   UNL     1       0.770  -2.230   0.026  1.00  0.00    +0.007 A 
ATOM     10  C   UNL     1       2.616  -0.917  -0.790  1.00  0.00    +0.007 A 
ATOM     11  C   UNL     1       1.522  -3.395  -0.139  1.00  0.00    +0.000 A 
ATOM     12  C   UNL     1       3.369  -2.082  -0.954  1.00  0.00    +0.000 A 
ATOM     13  C   UNL     1       2.824  -3.320  -0.626  1.00  0.00    +0.000 A 
ENDBRANCH   7   8
BRANCH   7  14
ATOM     14  C   UNL     1       1.219   1.572   0.122  1.00  0.00    -0.015 A 
ATOM     15  C   UNL     1       1.846   1.797   1.358  1.00  0.00    +0.007 A 
ATOM     16  C   UNL     1       1.327   2.551  -0.879  1.00  0.00    +0.007 A 
ATOM     17  C   UNL     1       2.562   2.973   1.588  1.00  0.00    +0.000 A 
ATOM     18  C   UNL     1       2.044   3.726  -0.646  1.00  0.00    +0.000 A 
ATOM     19  C   UNL     1       2.660   3.936   0.586  1.00  0.00    +0.000 A 
ENDBRANCH   7  14
ENDBRANCH   6   7
ENDBRANCH   1   6
TORSDOF 6
