REMARK SMILES CCN(CC)c1ccc(SCCN(C)C)cc1
REMARK SMILES IDX 10 1 11 2 12 3 13 4 14 5 15 6 9 7 8 8 16 9 7 10 17 11 6 12
REMARK SMILES IDX 3 13 2 14 1 15 4 16 5 17
REMARK H PARENT
ROOT
ATOM      1  S   UNL     1       2.056   1.226  -2.081  1.00  0.00    -0.125 SA
ENDROOT
BRANCH   1   2
ATOM      2  C   UNL     1       3.118  -0.243  -1.820  1.00  0.00    +0.090 C 
BRANCH   2   3
ATOM      3  C   UNL     1       3.503  -0.519  -0.352  1.00  0.00    +0.095 C 
BRANCH   3   4
ATOM      4  N   UNL     1       4.154   0.591   0.372  1.00  0.00    -0.309 NA
ATOM      5  C   UNL     1       4.288   0.258   1.791  1.00  0.00    +0.105 C 
ATOM      6  C   UNL     1       5.462   0.926  -0.191  1.00  0.00    +0.105 C 
ENDBRANCH   3   4
ENDBRANCH   2   3
ENDBRANCH   1   2
BRANCH   1   7
ATOM      7  C   UNL     1       0.591   0.696  -1.223  1.00  0.00    +0.007 A 
ATOM      8  C   UNL     1      -0.267  -0.247  -1.778  1.00  0.00    +0.017 A 
ATOM      9  C   UNL     1       0.277   1.236   0.018  1.00  0.00    +0.017 A 
ATOM     10  C   UNL     1      -1.417  -0.654  -1.084  1.00  0.00    +0.027 A 
ATOM     11  C   UNL     1      -0.875   0.820   0.703  1.00  0.00    +0.027 A 
ATOM     12  C   UNL     1      -1.761  -0.139   0.179  1.00  0.00    +0.037 A 
BRANCH  12  13
ATOM     13  N   UNL     1      -2.901  -0.550   0.864  1.00  0.00    -0.372 N 
BRANCH  13  14
ATOM     14  C   UNL     1      -3.422   0.191   2.022  1.00  0.00    +0.113 C 
ATOM     15  C   UNL     1      -4.070   1.506   1.609  1.00  0.00    +0.027 C 
ENDBRANCH  13  14
BRANCH  13  16
ATOM     16  C   UNL     1      -3.639  -1.757   0.472  1.00  0.00    +0.113 C 
ATOM     17  C   UNL     1      -4.787  -1.428  -0.470  1.00  0.00    +0.027 C 
ENDBRANCH  13  16
ENDBRANCH  12  13
ENDBRANCH   1   7
TORSDOF 7
