REMARK SMILES CN1CCCC1c1cccnc1
REMARK SMILES IDX 1 1 2 2 3 3 4 4 5 5 6 6 7 7 8 8 12 9 9 10 11 11 10 12
REMARK H PARENT
ROOT
ATOM      1  C   UNL     1      -1.392   1.693   1.141  1.00  0.00    +0.106 C 
ATOM      2  N   UNL     1      -1.172   0.927  -0.079  1.00  0.00    -0.299 NA
ATOM      3  C   UNL     1      -2.426   0.594  -0.754  1.00  0.00    +0.085 C 
ATOM      4  C   UNL     1      -1.973  -0.439  -1.766  1.00  0.00    +0.017 C 
ATOM      5  C   UNL     1      -0.904  -1.238  -1.030  1.00  0.00    +0.025 C 
ATOM      6  C   UNL     1      -0.492  -0.360   0.163  1.00  0.00    +0.088 C 
ENDROOT
BRANCH   6   7
ATOM      7  C   UNL     1       1.006  -0.238   0.285  1.00  0.00    -0.012 A 
ATOM      8  C   UNL     1       1.713  -0.976   1.241  1.00  0.00    +0.008 A 
ATOM      9  C   UNL     1       1.753   0.578  -0.562  1.00  0.00    +0.116 A 
ATOM     10  C   UNL     1       3.099  -0.867   1.317  1.00  0.00    +0.020 A 
ATOM     11  N   UNL     1       3.101   0.701  -0.514  1.00  0.00    -0.264 NA
ATOM     12  C   UNL     1       3.742  -0.023   0.426  1.00  0.00    +0.111 A 
ENDBRANCH   6   7
TORSDOF 1
