REMARK SMILES CN1C2CCC1C(Cl)(Cl)C2N
REMARK SMILES IDX 1 1 2 2 6 3 5 4 4 5 3 6 10 7 7 8 8 9 9 10 11 11
REMARK H PARENT 11 12 11 13
ROOT
ATOM      1  C   UNL     1      -1.941  -0.988  -1.137  1.00  0.00    +0.106 C 
ATOM      2  N   UNL     1      -0.696  -0.988  -0.388  1.00  0.00    -0.296 NA
ATOM      3  C   UNL     1      -0.739  -0.390   0.971  1.00  0.00    +0.094 C 
ATOM      4  C   UNL     1      -0.945   1.105   0.659  1.00  0.00    +0.024 C 
ATOM      5  C   UNL     1      -0.121   1.297  -0.618  1.00  0.00    +0.022 C 
ATOM      6  C   UNL     1       0.380  -0.126  -0.912  1.00  0.00    +0.076 C 
ATOM      7  C   UNL     1       1.524  -0.535   0.075  1.00  0.00    +0.106 C 
ATOM      8  C   UNL     1       0.727  -0.681   1.433  1.00  0.00    +0.150 C 
ATOM      9 Cl   UNL     1       0.865  -2.363   2.073  1.00  0.00    -0.098 Cl
ATOM     10 Cl   UNL     1       1.289   0.421   2.732  1.00  0.00    -0.098 Cl
ENDROOT
BRANCH   7  11
ATOM     11  N   UNL     1       2.712   0.337   0.040  1.00  0.00    -0.324 NA
ATOM     12  H   UNL     1       2.547   1.188   0.578  1.00  0.00    +0.119 HD
ATOM     13  H   UNL     1       2.925   0.612  -0.917  1.00  0.00    +0.119 HD
ENDBRANCH   7  11
TORSDOF 1
