REMARK SMILES CNCCCOc1ccc(C(F)(F)F)cc1
REMARK SMILES IDX 5 1 4 2 3 3 2 4 1 5 6 7 7 8 8 9 16 10 9 11 15 12 10 13 11 14
REMARK SMILES IDX 12 15 13 16 14 17
REMARK H PARENT 2 6
ROOT
ATOM      1  C   UNL     1      -0.821  -0.532  -1.360  1.00  0.00    +0.231 C 
ENDROOT
BRANCH   1   2
ATOM      2  C   UNL     1      -2.283  -0.120  -1.517  1.00  0.00    +0.057 C 
BRANCH   2   3
ATOM      3  C   UNL     1      -3.021  -0.124  -0.176  1.00  0.00    +0.084 C 
BRANCH   3   4
ATOM      4  N   UNL     1      -4.433   0.206  -0.393  1.00  0.00    -0.320 NA
ATOM      5  C   UNL     1      -5.166   0.208   0.867  1.00  0.00    +0.101 C 
ATOM      6  H   UNL     1      -4.502   1.130  -0.820  1.00  0.00    +0.122 HD
ENDBRANCH   3   4
ENDBRANCH   2   3
ENDBRANCH   1   2
BRANCH   1   7
ATOM      7  O   UNL     1      -0.156   0.427  -0.539  1.00  0.00    -0.494 OA
BRANCH   7   8
ATOM      8  C   UNL     1       1.169   0.213  -0.275  1.00  0.00    +0.119 A 
ATOM      9  C   UNL     1       1.759   1.170   0.553  1.00  0.00    +0.047 A 
ATOM     10  C   UNL     1       1.942  -0.843  -0.755  1.00  0.00    +0.047 A 
ATOM     11  C   UNL     1       3.108   1.075   0.906  1.00  0.00    +0.017 A 
ATOM     12  C   UNL     1       3.294  -0.942  -0.404  1.00  0.00    +0.017 A 
ATOM     13  C   UNL     1       3.890   0.011   0.436  1.00  0.00    +0.056 A 
BRANCH  13  14
ATOM     14  C   UNL     1       5.352  -0.086   0.793  1.00  0.00    +0.416 C 
ATOM     15  F   UNL     1       5.803  -1.371   0.853  1.00  0.00    -0.166 F 
ATOM     16  F   UNL     1       5.647   0.465   2.004  1.00  0.00    -0.166 F 
ATOM     17  F   UNL     1       6.149   0.548  -0.111  1.00  0.00    -0.166 F 
ENDBRANCH  13  14
ENDBRANCH   7   8
ENDBRANCH   1   7
TORSDOF 6
