REMARK SMILES CN(C)CCc1ccccc1
REMARK SMILES IDX 4 1 2 2 1 3 3 4 5 5 6 6 7 7 11 8 8 9 10 10 9 11
REMARK H PARENT
ROOT
ATOM      1  C   UNL     1      -1.076   0.105  -0.207  1.00  0.00    +0.088 C 
ENDROOT
BRANCH   1   2
ATOM      2  N   UNL     1      -2.472   0.117   0.274  1.00  0.00    -0.309 NA
ATOM      3  C   UNL     1      -3.377   0.437  -0.833  1.00  0.00    +0.104 C 
ATOM      4  C   UNL     1      -2.857  -1.166   0.868  1.00  0.00    +0.104 C 
ENDBRANCH   1   2
BRANCH   1   5
ATOM      5  C   UNL     1      -0.038   0.035   0.926  1.00  0.00    +0.051 C 
BRANCH   5   6
ATOM      6  C   UNL     1       1.372   0.153   0.396  1.00  0.00    -0.047 A 
ATOM      7  C   UNL     1       1.988   1.407   0.292  1.00  0.00    +0.004 A 
ATOM      8  C   UNL     1       2.071  -0.986  -0.025  1.00  0.00    +0.004 A 
ATOM      9  C   UNL     1       3.283   1.519  -0.216  1.00  0.00    +0.000 A 
ATOM     10  C   UNL     1       3.367  -0.872  -0.532  1.00  0.00    +0.000 A 
ATOM     11  C   UNL     1       3.972   0.379  -0.627  1.00  0.00    +0.000 A 
ENDBRANCH   5   6
ENDBRANCH   1   5
TORSDOF 3
