REMARK SMILES CC(C)NCC(O)COc1ccc(NCC(N)=O)cc1
REMARK SMILES IDX 8 1 6 2 5 3 4 4 2 6 1 7 3 8 7 9 9 11 10 12 11 13 20 14 12 15
REMARK SMILES IDX 19 16 13 17 14 18 15 20 16 21 17 22 18 23
REMARK H PARENT 4 5 7 10 14 19 17 24 17 25
ROOT
ATOM      1  C   UNL     1      -1.493  -1.991  -0.049  1.00  0.00    +0.262 C 
ENDROOT
BRANCH   1   2
ATOM      2  C   UNL     1      -1.686  -1.490   1.394  1.00  0.00    +0.165 C 
BRANCH   2   3
ATOM      3  C   UNL     1      -2.497  -0.171   1.495  1.00  0.00    +0.116 C 
BRANCH   3   4
ATOM      4  N   UNL     1      -3.827  -0.236   0.868  1.00  0.00    -0.312 NA
ATOM      5  H   UNL     1      -3.729  -0.391  -0.136  1.00  0.00    +0.123 HD
BRANCH   4   6
ATOM      6  C   UNL     1      -4.638   0.966   1.101  1.00  0.00    +0.047 C 
ATOM      7  C   UNL     1      -6.085   0.630   0.727  1.00  0.00    +0.024 C 
ATOM      8  C   UNL     1      -4.156   2.161   0.274  1.00  0.00    +0.024 C 
ENDBRANCH   4   6
ENDBRANCH   3   4
ENDBRANCH   2   3
BRANCH   2   9
ATOM      9  O   UNL     1      -2.297  -2.507   2.199  1.00  0.00    -0.388 OA
ATOM     10  H   UNL     1      -1.782  -3.326   2.101  1.00  0.00    +0.211 HD
ENDBRANCH   2   9
ENDBRANCH   1   2
BRANCH   1  11
ATOM     11  O   UNL     1      -0.946  -0.994  -0.912  1.00  0.00    -0.491 OA
BRANCH  11  12
ATOM     12  C   UNL     1       0.389  -0.720  -0.828  1.00  0.00    +0.119 A 
ATOM     13  C   UNL     1       1.357  -1.502  -0.206  1.00  0.00    +0.048 A 
ATOM     14  C   UNL     1       0.780   0.468  -1.443  1.00  0.00    +0.048 A 
ATOM     15  C   UNL     1       2.700  -1.093  -0.193  1.00  0.00    +0.029 A 
ATOM     16  C   UNL     1       2.119   0.875  -1.424  1.00  0.00    +0.029 A 
ATOM     17  C   UNL     1       3.111   0.086  -0.826  1.00  0.00    +0.035 A 
BRANCH  17  18
ATOM     18  N   UNL     1       4.415   0.591  -0.765  1.00  0.00    -0.376 N 
ATOM     19  H   UNL     1       4.601   1.207  -1.558  1.00  0.00    +0.161 HD
BRANCH  18  20
ATOM     20  C   UNL     1       5.540  -0.341  -0.558  1.00  0.00    +0.213 C 
BRANCH  20  21
ATOM     21  C   UNL     1       6.855   0.432  -0.390  1.00  0.00    +0.236 C 
ATOM     22  N   UNL     1       6.713   1.742  -0.014  1.00  0.00    -0.368 N 
ATOM     23  O   UNL     1       7.964  -0.072  -0.551  1.00  0.00    -0.273 OA
ATOM     24  H   UNL     1       7.537   2.282   0.206  1.00  0.00    +0.159 HD
ATOM     25  H   UNL     1       5.791   2.080   0.241  1.00  0.00    +0.159 HD
ENDBRANCH  20  21
ENDBRANCH  18  20
ENDBRANCH  17  18
ENDBRANCH  11  12
ENDBRANCH   1  11
TORSDOF 10
