REMARK SMILES CC(=O)CC(c1ccccc1)c1c(O)c2ccccc2oc1=O
REMARK SMILES IDX 5 1 4 2 2 3 3 4 1 5 6 6 7 7 11 8 8 9 10 10 9 11 12 12 13 13
REMARK SMILES IDX 22 14 15 15 21 16 23 17 16 18 20 19 17 20 19 21 18 22 14 23
REMARK H PARENT 14 24
ROOT
ATOM      1  C   UNL     1      -1.083   0.392   0.841  1.00  0.00    +0.068 C 
ENDROOT
BRANCH   1   2
ATOM      2  C   UNL     1      -1.718   1.697   0.322  1.00  0.00    +0.088 C 
BRANCH   2   3
ATOM      3  C   UNL     1      -1.039   2.914   0.918  1.00  0.00    +0.130 C 
ATOM      4  O   UNL     1      -0.174   3.533   0.298  1.00  0.00    -0.300 OA
ATOM      5  C   UNL     1      -1.434   3.315   2.316  1.00  0.00    +0.087 C 
ENDBRANCH   2   3
ENDBRANCH   1   2
BRANCH   1   6
ATOM      6  C   UNL     1      -1.904  -0.868   0.556  1.00  0.00    -0.040 A 
ATOM      7  C   UNL     1      -1.821  -1.949   1.452  1.00  0.00    +0.004 A 
ATOM      8  C   UNL     1      -2.723  -1.003  -0.575  1.00  0.00    +0.004 A 
ATOM      9  C   UNL     1      -2.544  -3.122   1.229  1.00  0.00    +0.000 A 
ATOM     10  C   UNL     1      -3.447  -2.178  -0.796  1.00  0.00    +0.000 A 
ATOM     11  C   UNL     1      -3.359  -3.235   0.106  1.00  0.00    +0.000 A 
ENDBRANCH   1   6
BRANCH   1  12
ATOM     12  C   UNL     1       0.375   0.224   0.417  1.00  0.00    +0.088 C 
ATOM     13  C   UNL     1       0.801   0.137  -0.855  1.00  0.00    +0.137 C 
ATOM     14  C   UNL     1       1.356   0.149   1.531  1.00  0.00    +0.343 C 
ATOM     15  C   UNL     1       2.223  -0.005  -1.177  1.00  0.00    +0.060 A 
ATOM     16  O   UNL     1       2.677  -0.119   1.210  1.00  0.00    -0.422 OA
ATOM     17  O   UNL     1       1.015   0.285   2.703  1.00  0.00    -0.246 OA
ATOM     18  C   UNL     1       2.746   0.024  -2.477  1.00  0.00    +0.016 A 
ATOM     19  C   UNL     1       3.117  -0.157  -0.123  1.00  0.00    +0.142 A 
ATOM     20  C   UNL     1       4.119  -0.138  -2.698  1.00  0.00    +0.001 A 
ATOM     21  C   UNL     1       4.488  -0.323  -0.325  1.00  0.00    +0.048 A 
ATOM     22  C   UNL     1       4.988  -0.319  -1.623  1.00  0.00    +0.004 A 
BRANCH  13  23
ATOM     23  O   UNL     1      -0.092   0.150  -1.908  1.00  0.00    -0.507 OA
ATOM     24  H   UNL     1       0.235  -0.460  -2.590  1.00  0.00    +0.293 HD
ENDBRANCH  13  23
ENDBRANCH   1  12
TORSDOF 5
