REMARK SMILES Cc1cc2c(cc1O)CCC1CCC(O)CC21
REMARK SMILES IDX 1 1 2 2 3 3 4 4 5 5 6 6 7 7 9 8 10 9 11 10 17 11 16 12 14 13
REMARK SMILES IDX 13 14 12 15 8 16 15 18
REMARK H PARENT 8 17 15 19
ROOT
ATOM      1  C   UNL     1       3.978  -1.748   1.024  1.00  0.00    +0.048 C 
ATOM      2  C   UNL     1       3.064  -0.746   0.382  1.00  0.00    -0.009 A 
ATOM      3  C   UNL     1       1.685  -0.800   0.647  1.00  0.00    +0.011 A 
ATOM      4  C   UNL     1       0.776   0.106   0.065  1.00  0.00    -0.041 A 
ATOM      5  C   UNL     1       1.280   1.123  -0.766  1.00  0.00    -0.041 A 
ATOM      6  C   UNL     1       2.654   1.172  -1.043  1.00  0.00    +0.050 A 
ATOM      7  C   UNL     1       3.530   0.250  -0.478  1.00  0.00    +0.118 A 
ATOM      8  C   UNL     1       0.381   2.146  -1.413  1.00  0.00    +0.036 C 
ATOM      9  C   UNL     1      -0.968   2.279  -0.715  1.00  0.00    +0.009 C 
ATOM     10  C   UNL     1      -1.590   0.897  -0.514  1.00  0.00    -0.003 C 
ATOM     11  C   UNL     1      -0.707   0.025   0.403  1.00  0.00    +0.025 C 
ATOM     12  C   UNL     1      -1.259  -1.420   0.429  1.00  0.00    +0.040 C 
ATOM     13  C   UNL     1      -2.770  -1.507   0.186  1.00  0.00    +0.115 C 
ATOM     14  C   UNL     1      -3.501  -0.280   0.718  1.00  0.00    +0.032 C 
ATOM     15  C   UNL     1      -3.016   1.009   0.052  1.00  0.00    +0.007 C 
ENDROOT
BRANCH   7  16
ATOM     16  O   UNL     1       4.847   0.390  -0.810  1.00  0.00    -0.508 OA
ATOM     17  H   UNL     1       5.362  -0.306  -0.374  1.00  0.00    +0.293 HD
ENDBRANCH   7  16
BRANCH  13  18
ATOM     18  O   UNL     1      -3.267  -2.682   0.820  1.00  0.00    -0.393 OA
ATOM     19  H   UNL     1      -4.219  -2.739   0.629  1.00  0.00    +0.210 HD
ENDBRANCH  13  18
TORSDOF 2
