REMARK SMILES CNC(C)C(O)Cc1ccccc1
REMARK SMILES IDX 4 1 3 2 2 3 1 4 5 6 6 7 7 9 8 10 9 11 13 12 10 13 12 14
REMARK SMILES IDX 11 15
REMARK H PARENT 2 5 6 8
ROOT
ATOM      1  C   UNL     1      -1.772  -1.066  -0.951  1.00  0.00    +0.027 C 
ATOM      2  C   UNL     1      -1.364   0.197  -0.180  1.00  0.00    +0.079 C 
ENDROOT
BRANCH   2   3
ATOM      3  N   UNL     1      -2.473   1.168  -0.096  1.00  0.00    -0.315 NA
ATOM      4  C   UNL     1      -2.997   1.608  -1.375  1.00  0.00    +0.101 C 
ATOM      5  H   UNL     1      -3.213   0.786   0.496  1.00  0.00    +0.122 HD
ENDBRANCH   2   3
BRANCH   2   6
ATOM      6  C   UNL     1      -0.910  -0.120   1.282  1.00  0.00    +0.135 C 
BRANCH   6   7
ATOM      7  O   UNL     1      -1.989  -0.733   2.016  1.00  0.00    -0.391 OA
ATOM      8  H   UNL     1      -2.138  -1.618   1.645  1.00  0.00    +0.211 HD
ENDBRANCH   6   7
BRANCH   6   9
ATOM      9  C   UNL     1       0.334  -1.021   1.401  1.00  0.00    +0.069 C 
BRANCH   9  10
ATOM     10  C   UNL     1       1.576  -0.469   0.748  1.00  0.00    -0.045 A 
ATOM     11  C   UNL     1       2.183   0.695   1.240  1.00  0.00    +0.004 A 
ATOM     12  C   UNL     1       2.145  -1.113  -0.360  1.00  0.00    +0.004 A 
ATOM     13  C   UNL     1       3.328   1.209   0.631  1.00  0.00    +0.000 A 
ATOM     14  C   UNL     1       3.291  -0.597  -0.967  1.00  0.00    +0.000 A 
ATOM     15  C   UNL     1       3.881   0.564  -0.473  1.00  0.00    +0.000 A 
ENDBRANCH   9  10
ENDBRANCH   6   9
ENDBRANCH   2   6
TORSDOF 5
