REMARK SMILES CC1CC(=O)C=C(C2CCC3C2CCC2(C)C(O)CCC32)C1
REMARK SMILES IDX 16 1 15 2 14 3 13 4 12 5 11 6 21 7 20 8 19 9 17 10 10 11
REMARK SMILES IDX 9 12 8 13 18 14 7 16 6 17 22 18 4 19 2 20 5 21 3 22 1 23
REMARK H PARENT 18 15
ROOT
ATOM      1  C   UNL     1      -3.446   0.248   1.410  1.00  0.00    +0.014 C 
ATOM      2  C   UNL     1      -2.941  -0.482   0.140  1.00  0.00    -0.003 C 
ATOM      3  C   UNL     1      -1.940  -1.583   0.559  1.00  0.00    +0.010 C 
ATOM      4  C   UNL     1      -0.552  -1.006   0.833  1.00  0.00    +0.005 C 
ATOM      5  C   UNL     1       0.045  -0.364  -0.426  1.00  0.00    -0.001 C 
ATOM      6  C   UNL     1      -0.999   0.071  -1.469  1.00  0.00    -0.004 C 
ATOM      7  C   UNL     1      -2.311   0.565  -0.832  1.00  0.00    +0.001 C 
ATOM      8  C   UNL     1      -3.389   0.858  -1.898  1.00  0.00    +0.007 C 
ATOM      9  C   UNL     1      -4.669   0.173  -1.423  1.00  0.00    +0.032 C 
ATOM     10  C   UNL     1      -4.160  -1.032  -0.640  1.00  0.00    +0.120 C 
ATOM     11  C   UNL     1      -0.252   1.133  -2.275  1.00  0.00    +0.005 C 
ATOM     12  C   UNL     1       0.552   1.906  -1.240  1.00  0.00    +0.008 C 
ATOM     13  C   UNL     1       0.905   0.894  -0.129  1.00  0.00    +0.018 C 
ENDROOT
BRANCH  10  14
ATOM     14  O   UNL     1      -3.773  -2.041  -1.568  1.00  0.00    -0.393 OA
ATOM     15  H   UNL     1      -4.573  -2.324  -2.044  1.00  0.00    +0.210 HD
ENDBRANCH  10  14
BRANCH  13  16
ATOM     16  C   UNL     1       2.378   0.535   0.015  1.00  0.00    -0.063 C 
ATOM     17  C   UNL     1       3.226   0.469  -1.029  1.00  0.00    +0.047 C 
ATOM     18  C   UNL     1       2.839   0.241   1.430  1.00  0.00    +0.035 C 
ATOM     19  C   UNL     1       4.669   0.169  -0.843  1.00  0.00    +0.155 C 
ATOM     20  C   UNL     1       4.123  -0.604   1.472  1.00  0.00    -0.003 C 
ATOM     21  O   UNL     1       5.407   0.125  -1.825  1.00  0.00    -0.295 OA
ATOM     22  C   UNL     1       5.194  -0.002   0.563  1.00  0.00    +0.084 C 
ATOM     23  C   UNL     1       4.637  -0.747   2.906  1.00  0.00    +0.008 C 
ENDBRANCH  13  16
TORSDOF 2
