REMARK SMILES O=C1NC(=O)C(c2ccccc2)(c2ccccc2)N1
REMARK SMILES IDX 5 1 4 2 3 3 2 4 1 5 19 6 6 7 7 10 8 11 12 12 9 13 11 14
REMARK SMILES IDX 10 15 13 16 14 17 18 18 15 19 17 20 16 21
REMARK H PARENT 3 8 19 9
ROOT
ATOM      1  O   UNL     1      -0.533  -0.519  -2.797  1.00  0.00    -0.271 OA
ATOM      2  C   UNL     1      -0.428   0.482  -2.098  1.00  0.00    +0.263 C 
ATOM      3  N   UNL     1      -0.553   1.749  -2.581  1.00  0.00    -0.275 N 
ATOM      4  C   UNL     1      -0.292   2.651  -1.615  1.00  0.00    +0.322 C 
ATOM      5  O   UNL     1      -0.219   3.858  -1.762  1.00  0.00    -0.248 OA
ATOM      6  N   UNL     1      -0.095   1.994  -0.433  1.00  0.00    -0.316 N 
ATOM      7  C   UNL     1      -0.119   0.545  -0.567  1.00  0.00    +0.172 C 
ATOM      8  H   UNL     1      -0.702   1.981  -3.548  1.00  0.00    +0.174 HD
ATOM      9  H   UNL     1       0.240   2.486   0.383  1.00  0.00    +0.167 HD
ENDROOT
BRANCH   7  10
ATOM     10  C   UNL     1       1.261   0.007  -0.162  1.00  0.00    -0.008 A 
ATOM     11  C   UNL     1       1.662   0.078   1.189  1.00  0.00    +0.007 A 
ATOM     12  C   UNL     1       2.167  -0.546  -1.083  1.00  0.00    +0.007 A 
ATOM     13  C   UNL     1       2.913  -0.386   1.600  1.00  0.00    +0.000 A 
ATOM     14  C   UNL     1       3.420  -1.010  -0.669  1.00  0.00    +0.000 A 
ATOM     15  C   UNL     1       3.792  -0.930   0.669  1.00  0.00    +0.000 A 
ENDBRANCH   7  10
BRANCH   7  16
ATOM     16  C   UNL     1      -1.270  -0.103   0.216  1.00  0.00    -0.008 A 
ATOM     17  C   UNL     1      -1.448  -1.499   0.164  1.00  0.00    +0.007 A 
ATOM     18  C   UNL     1      -2.176   0.646   0.990  1.00  0.00    +0.007 A 
ATOM     19  C   UNL     1      -2.483  -2.122   0.864  1.00  0.00    +0.000 A 
ATOM     20  C   UNL     1      -3.211   0.021   1.690  1.00  0.00    +0.000 A 
ATOM     21  C   UNL     1      -3.363  -1.362   1.628  1.00  0.00    +0.000 A 
ENDBRANCH   7  16
TORSDOF 2
