REMARK SMILES COc1ccc2c(c1)CC(O)C1C(O)CCC21
REMARK SMILES IDX 3 1 4 2 5 3 6 4 7 5 8 6 9 7 10 8 12 9 17 10 16 11 15 12
REMARK SMILES IDX 13 13 2 14 1 15 11 16 14 18
REMARK H PARENT 11 17 14 19
ROOT
ATOM      1  C   UNL     1       3.124   0.177  -0.276  1.00  0.00    +0.119 A 
ATOM      2  C   UNL     1       2.536   1.420  -0.502  1.00  0.00    +0.047 A 
ATOM      3  C   UNL     1       1.144   1.547  -0.527  1.00  0.00    +0.008 A 
ATOM      4  C   UNL     1       0.318   0.436  -0.316  1.00  0.00    -0.041 A 
ATOM      5  C   UNL     1       0.906  -0.830  -0.106  1.00  0.00    -0.038 A 
ATOM      6  C   UNL     1       2.306  -0.939  -0.079  1.00  0.00    +0.050 A 
ATOM      7  C   UNL     1       0.076  -2.073   0.154  1.00  0.00    +0.068 C 
ATOM      8  C   UNL     1      -1.438  -1.902  -0.073  1.00  0.00    +0.125 C 
ATOM      9  C   UNL     1      -1.856  -0.531   0.428  1.00  0.00    +0.054 C 
ATOM     10  C   UNL     1      -1.179   0.553  -0.401  1.00  0.00    +0.028 C 
ATOM     11  C   UNL     1      -1.878   1.808   0.124  1.00  0.00    +0.011 C 
ATOM     12  C   UNL     1      -3.328   1.361   0.389  1.00  0.00    +0.033 C 
ATOM     13  C   UNL     1      -3.326  -0.171   0.290  1.00  0.00    +0.120 C 
ENDROOT
BRANCH   1  14
ATOM     14  O   UNL     1       4.466  -0.083  -0.225  1.00  0.00    -0.497 OA
ATOM     15  C   UNL     1       5.341   1.025  -0.390  1.00  0.00    +0.278 C 
ENDBRANCH   1  14
BRANCH   8  16
ATOM     16  O   UNL     1      -2.176  -2.898   0.637  1.00  0.00    -0.392 OA
ATOM     17  H   UNL     1      -1.834  -3.766   0.358  1.00  0.00    +0.210 HD
ENDBRANCH   8  16
BRANCH  13  18
ATOM     18  O   UNL     1      -4.104  -0.757   1.317  1.00  0.00    -0.393 OA
ATOM     19  H   UNL     1      -3.818  -1.692   1.373  1.00  0.00    +0.210 HD
ENDBRANCH  13  18
TORSDOF 3
