REMARK SMILES COc1ccc(-n2c(S(C)(=O)=O)nc3ccc(CC(=O)O)cc32)cc1
REMARK SMILES IDX 8 1 13 2 14 3 15 4 16 5 17 6 22 7 23 8 7 9 9 10 11 11 12 12
REMARK SMILES IDX 10 13 6 14 5 15 24 16 4 17 25 18 3 19 2 20 1 21 18 22 19 23
REMARK SMILES IDX 20 24 21 25
REMARK H PARENT 21 26
ROOT
ATOM      1  C   UNL     1      -0.639   2.393   0.389  1.00  0.00    +0.233 A 
ATOM      2  N   UNL     1       0.464   3.123   0.482  1.00  0.00    -0.218 NA
ATOM      3  C   UNL     1       1.495   2.232   0.511  1.00  0.00    +0.090 A 
ATOM      4  C   UNL     1       2.872   2.483   0.594  1.00  0.00    +0.031 A 
ATOM      5  C   UNL     1       3.760   1.402   0.634  1.00  0.00    +0.007 A 
ATOM      6  C   UNL     1       3.294   0.081   0.611  1.00  0.00    -0.035 A 
ATOM      7  C   UNL     1       1.912  -0.173   0.539  1.00  0.00    +0.033 A 
ATOM      8  C   UNL     1       1.033   0.923   0.454  1.00  0.00    +0.074 A 
ATOM      9  N   UNL     1      -0.354   1.035   0.370  1.00  0.00    -0.283 N 
ENDROOT
BRANCH   1  10
ATOM     10  S   UNL     1      -2.230   3.117   0.132  1.00  0.00    +0.209 S 
ATOM     11  O   UNL     1      -2.777   2.477  -1.047  1.00  0.00    -0.221 OA
ATOM     12  O   UNL     1      -2.897   3.079   1.418  1.00  0.00    -0.221 OA
ATOM     13  C   UNL     1      -1.863   4.805  -0.264  1.00  0.00    +0.167 C 
ENDBRANCH   1  10
BRANCH   9  14
ATOM     14  C   UNL     1      -1.259  -0.056   0.263  1.00  0.00    +0.049 A 
ATOM     15  C   UNL     1      -0.972  -1.113  -0.612  1.00  0.00    +0.030 A 
ATOM     16  C   UNL     1      -2.425  -0.097   1.030  1.00  0.00    +0.030 A 
ATOM     17  C   UNL     1      -1.851  -2.196  -0.726  1.00  0.00    +0.048 A 
ATOM     18  C   UNL     1      -3.295  -1.185   0.912  1.00  0.00    +0.048 A 
ATOM     19  C   UNL     1      -3.018  -2.236   0.036  1.00  0.00    +0.119 A 
BRANCH  19  20
ATOM     20  O   UNL     1      -3.955  -3.232   0.022  1.00  0.00    -0.497 OA
ATOM     21  C   UNL     1      -3.750  -4.294  -0.901  1.00  0.00    +0.278 C 
ENDBRANCH  19  20
ENDBRANCH   9  14
BRANCH   6  22
ATOM     22  C   UNL     1       4.272  -1.072   0.690  1.00  0.00    +0.158 C 
BRANCH  22  23
ATOM     23  C   UNL     1       4.303  -1.952  -0.537  1.00  0.00    +0.307 C 
ATOM     24  O   UNL     1       3.522  -1.973  -1.475  1.00  0.00    -0.252 OA
BRANCH  23  25
ATOM     25  O   UNL     1       5.337  -2.821  -0.503  1.00  0.00    -0.481 OA
ATOM     26  H   UNL     1       5.242  -3.332  -1.335  1.00  0.00    +0.296 HD
ENDBRANCH  23  25
ENDBRANCH  22  23
ENDBRANCH   6  22
TORSDOF 6
