REMARK SMILES COc1ccc2c(c1OC)CC(O)C1C(O)CCC21
REMARK SMILES IDX 3 1 4 2 5 3 6 4 7 5 8 6 11 7 12 8 14 9 19 10 18 11 17 12
REMARK SMILES IDX 15 13 2 14 1 15 9 16 10 17 13 18 16 20
REMARK H PARENT 13 19 16 21
ROOT
ATOM      1  C   UNL     1       2.665   0.543  -0.606  1.00  0.00    +0.161 A 
ATOM      2  C   UNL     1       1.963   1.016  -1.715  1.00  0.00    +0.051 A 
ATOM      3  C   UNL     1       0.580   0.841  -1.807  1.00  0.00    +0.008 A 
ATOM      4  C   UNL     1      -0.138   0.202  -0.786  1.00  0.00    -0.037 A 
ATOM      5  C   UNL     1       0.553  -0.269   0.346  1.00  0.00    +0.004 A 
ATOM      6  C   UNL     1       1.956  -0.132   0.406  1.00  0.00    +0.164 A 
ATOM      7  C   UNL     1      -0.183  -0.972   1.463  1.00  0.00    +0.072 C 
ATOM      8  C   UNL     1      -1.678  -0.647   1.491  1.00  0.00    +0.125 C 
ATOM      9  C   UNL     1      -2.296  -0.864   0.106  1.00  0.00    +0.054 C 
ATOM     10  C   UNL     1      -1.632   0.043  -0.937  1.00  0.00    +0.028 C 
ATOM     11  C   UNL     1      -2.398   1.379  -0.830  1.00  0.00    +0.011 C 
ATOM     12  C   UNL     1      -3.721   1.066  -0.126  1.00  0.00    +0.033 C 
ATOM     13  C   UNL     1      -3.768  -0.452  -0.014  1.00  0.00    +0.120 C 
ENDROOT
BRANCH   1  14
ATOM     14  O   UNL     1       4.015   0.696  -0.426  1.00  0.00    -0.493 OA
ATOM     15  C   UNL     1       4.706   1.547  -1.330  1.00  0.00    +0.278 C 
ENDBRANCH   1  14
BRANCH   6  16
ATOM     16  O   UNL     1       2.568  -0.632   1.533  1.00  0.00    -0.493 OA
ATOM     17  C   UNL     1       3.597  -1.575   1.237  1.00  0.00    +0.278 C 
ENDBRANCH   6  16
BRANCH   8  18
ATOM     18  O   UNL     1      -2.353  -1.469   2.447  1.00  0.00    -0.392 OA
ATOM     19  H   UNL     1      -2.095  -2.395   2.285  1.00  0.00    +0.210 HD
ENDBRANCH   8  18
BRANCH  13  20
ATOM     20  O   UNL     1      -4.597  -0.879   1.047  1.00  0.00    -0.393 OA
ATOM     21  H   UNL     1      -4.047  -0.963   1.854  1.00  0.00    +0.210 HD
ENDBRANCH  13  20
TORSDOF 4
