REMARK SMILES CCOc1ccc(C(C)NCC(O)CC)cc1
REMARK SMILES IDX 9 1 8 2 10 3 11 5 12 6 13 7 14 9 15 10 7 11 6 12 16 13 5 14
REMARK SMILES IDX 17 15 4 16 3 17 2 18 1 19
REMARK H PARENT 10 4 13 8
ROOT
ATOM      1  C   UNL     1      -0.765  -1.283   2.414  1.00  0.00    +0.029 C 
ATOM      2  C   UNL     1      -0.857  -0.718   0.992  1.00  0.00    +0.081 C 
ENDROOT
BRANCH   2   3
ATOM      3  N   UNL     1      -1.419   0.641   0.947  1.00  0.00    -0.308 NA
ATOM      4  H   UNL     1      -1.344   0.974  -0.013  1.00  0.00    +0.123 HD
BRANCH   3   5
ATOM      5  C   UNL     1      -2.814   0.758   1.395  1.00  0.00    +0.113 C 
BRANCH   5   6
ATOM      6  C   UNL     1      -3.912   0.065   0.549  1.00  0.00    +0.128 C 
BRANCH   6   7
ATOM      7  O   UNL     1      -3.878  -1.348   0.773  1.00  0.00    -0.392 OA
ATOM      8  H   UNL     1      -4.625  -1.740   0.288  1.00  0.00    +0.211 HD
ENDBRANCH   6   7
BRANCH   6   9
ATOM      9  C   UNL     1      -3.846   0.333  -0.959  1.00  0.00    +0.030 C 
ATOM     10  C   UNL     1      -3.967   1.804  -1.322  1.00  0.00    +0.007 C 
ENDBRANCH   6   9
ENDBRANCH   5   6
ENDBRANCH   3   5
ENDBRANCH   2   3
BRANCH   2  11
ATOM     11  C   UNL     1       0.531  -0.709   0.355  1.00  0.00    -0.031 A 
ATOM     12  C   UNL     1       0.825  -1.574  -0.707  1.00  0.00    +0.009 A 
ATOM     13  C   UNL     1       1.539   0.155   0.809  1.00  0.00    +0.009 A 
ATOM     14  C   UNL     1       2.094  -1.571  -1.292  1.00  0.00    +0.047 A 
ATOM     15  C   UNL     1       2.809   0.156   0.221  1.00  0.00    +0.047 A 
ATOM     16  C   UNL     1       3.095  -0.712  -0.831  1.00  0.00    +0.119 A 
BRANCH  16  17
ATOM     17  O   UNL     1       4.282  -0.816  -1.500  1.00  0.00    -0.494 OA
BRANCH  17  18
ATOM     18  C   UNL     1       5.410  -0.089  -1.015  1.00  0.00    +0.226 C 
ATOM     19  C   UNL     1       5.475   1.290  -1.646  1.00  0.00    +0.049 C 
ENDBRANCH  17  18
ENDBRANCH  16  17
ENDBRANCH   2  11
TORSDOF 8
