REMARK SMILES CNc1nc(C)nc(NCCSCc2ccccc2)n1
REMARK SMILES IDX 10 1 9 2 8 4 5 5 4 6 7 7 3 8 20 9 6 10 2 11 1 12 11 14 12 15
REMARK SMILES IDX 13 16 14 17 15 18 19 19 16 20 18 21 17 22
REMARK H PARENT 9 3 2 13
ROOT
ATOM      1  C   UNL     1       0.033   0.700  -0.118  1.00  0.00    +0.127 C 
ENDROOT
BRANCH   1   2
ATOM      2  N   UNL     1       1.049  -0.059  -0.836  1.00  0.00    -0.353 N 
ATOM      3  H   UNL     1       0.930  -1.067  -0.768  1.00  0.00    +0.163 HD
BRANCH   2   4
ATOM      4  C   UNL     1       2.355   0.206  -0.439  1.00  0.00    +0.227 A 
ATOM      5  C   UNL     1       3.980   1.583   0.269  1.00  0.00    +0.133 A 
ATOM      6  N   UNL     1       4.882   0.605   0.283  1.00  0.00    -0.198 NA
ATOM      7  N   UNL     1       2.705   1.436  -0.084  1.00  0.00    -0.198 NA
ATOM      8  C   UNL     1       4.432  -0.586  -0.092  1.00  0.00    +0.227 A 
ATOM      9  N   UNL     1       3.179  -0.833  -0.450  1.00  0.00    -0.177 NA
ATOM     10  C   UNL     1       4.442   2.958   0.638  1.00  0.00    +0.090 C 
BRANCH   8  11
ATOM     11  N   UNL     1       5.290  -1.679  -0.126  1.00  0.00    -0.357 N 
ATOM     12  C   UNL     1       6.307  -1.682   0.902  1.00  0.00    +0.143 C 
ATOM     13  H   UNL     1       4.699  -2.502  -0.156  1.00  0.00    +0.163 HD
ENDBRANCH   8  11
ENDBRANCH   2   4
ENDBRANCH   1   2
BRANCH   1  14
ATOM     14  C   UNL     1      -1.371   0.236  -0.527  1.00  0.00    +0.091 C 
BRANCH  14  15
ATOM     15  S   UNL     1      -1.663  -1.509  -0.048  1.00  0.00    -0.155 SA
BRANCH  15  16
ATOM     16  C   UNL     1      -3.226  -1.802  -0.934  1.00  0.00    +0.105 C 
BRANCH  16  17
ATOM     17  C   UNL     1      -4.362  -0.933  -0.458  1.00  0.00    -0.038 A 
ATOM     18  C   UNL     1      -4.922  -1.119   0.815  1.00  0.00    +0.004 A 
ATOM     19  C   UNL     1      -4.882   0.075  -1.284  1.00  0.00    +0.004 A 
ATOM     20  C   UNL     1      -5.973  -0.312   1.254  1.00  0.00    +0.000 A 
ATOM     21  C   UNL     1      -5.934   0.881  -0.843  1.00  0.00    +0.000 A 
ATOM     22  C   UNL     1      -6.478   0.688   0.425  1.00  0.00    +0.000 A 
ENDBRANCH  16  17
ENDBRANCH  15  16
ENDBRANCH  14  15
ENDBRANCH   1  14
TORSDOF 7
