REMARK SMILES CN1C(=O)CN=C(c2ccccc2)c2cc(Cl)ccc21
REMARK SMILES IDX 14 1 15 2 16 3 17 4 18 5 19 6 20 7 2 8 1 9 3 10 4 11 7 13
REMARK SMILES IDX 6 14 8 15 9 16 13 17 10 18 12 19 11 20 5 21
REMARK H PARENT
REMARK Flexibility Score:   20.900
ROOT
ATOM      1  C   UNL     1      -0.421   0.251  -0.705  1.00  0.00    +0.026 A 
ATOM      2  C   UNL     1       0.095   1.235  -1.569  1.00  0.00    +0.033 A 
ATOM      3  C   UNL     1      -0.697   2.308  -1.959  1.00  0.00    +0.041 A 
ATOM      4 Cl   UNL     1      -0.056   3.515  -3.001  1.00  0.00    -0.084 Cl
ATOM      5  C   UNL     1      -2.002   2.414  -1.497  1.00  0.00    +0.023 A 
ATOM      6  C   UNL     1      -2.526   1.425  -0.658  1.00  0.00    +0.028 A 
ATOM      7  C   UNL     1      -1.760   0.310  -0.267  1.00  0.00    +0.053 A 
ENDROOT
BRANCH   7   8
ATOM      8  N   UNL     1      -2.365  -0.701   0.544  1.00  0.00    -0.313 N 
ATOM      9  C   UNL     1      -3.464  -0.338   1.429  1.00  0.00    +0.153 C 
BRANCH   8  10
ATOM     10  C   UNL     1      -2.084  -2.068   0.424  1.00  0.00    +0.248 CG0
ATOM     11  O   UNL     1      -2.673  -2.923   1.093  1.00  0.00    -0.272 OA
ATOM     12  G   UNL     1      -1.074  -2.481  -0.637  1.00  0.00    +0.000 G0
ENDBRANCH   8  10
ENDBRANCH   7   8
BRANCH   1  13
ATOM     13  C   UNL     1       0.528  -0.799  -0.233  1.00  0.00    +0.075 C 
ATOM     14  N   UNL     1       0.261  -2.061  -0.222  1.00  0.00    -0.274 NA
BRANCH  13  15
ATOM     15  C   UNL     1       1.882  -0.381   0.255  1.00  0.00    +0.000 A 
ATOM     16  C   UNL     1       2.061   0.807   0.975  1.00  0.00    +0.010 A 
ATOM     17  C   UNL     1       2.980  -1.215   0.010  1.00  0.00    +0.010 A 
ATOM     18  C   UNL     1       3.336   1.169   1.417  1.00  0.00    +0.001 A 
ATOM     19  C   UNL     1       4.251  -0.849   0.454  1.00  0.00    +0.001 A 
ATOM     20  C   UNL     1       4.429   0.344   1.153  1.00  0.00    +0.000 A 
ENDBRANCH  13  15
BRANCH  14  21
ATOM     21  C   UNL     1      -1.074  -2.481  -0.637  1.00  0.00    +0.243 CG0
ATOM     22  G   UNL     1      -2.084  -2.068   0.424  1.00  0.00    +0.000 G0
ENDBRANCH  14  21
ENDBRANCH   1  13
TORSDOF 1
