REMARK SMILES Cc1cc(=O)n(-c2ccccc2)n1C
REMARK SMILES IDX 1 1 2 2 3 3 4 4 5 5 6 6 13 7 14 8 7 9 8 10 12 11 9 12 11 13
REMARK SMILES IDX 10 14
REMARK H PARENT
ROOT
ATOM      1  C   UNL     1      -3.650   0.711   0.247  1.00  0.00    +0.066 C 
ATOM      2  C   UNL     1      -2.333   0.434  -0.396  1.00  0.00    +0.037 C 
ATOM      3  C   UNL     1      -2.077   0.543  -1.706  1.00  0.00    +0.096 C 
ATOM      4  C   UNL     1      -0.655   0.175  -1.877  1.00  0.00    +0.271 C 
ATOM      5  O   UNL     1      -0.101   0.211  -2.964  1.00  0.00    -0.267 OA
ATOM      6  N   UNL     1      -0.163  -0.121  -0.600  1.00  0.00    -0.218 N 
ATOM      7  N   UNL     1      -1.227   0.005   0.348  1.00  0.00    -0.285 N 
ATOM      8  C   UNL     1      -1.394  -1.179   1.208  1.00  0.00    +0.172 C 
ENDROOT
BRANCH   6   9
ATOM      9  C   UNL     1       1.198  -0.046  -0.206  1.00  0.00    +0.067 A 
ATOM     10  C   UNL     1       1.561   0.281   1.110  1.00  0.00    +0.028 A 
ATOM     11  C   UNL     1       2.226  -0.288  -1.128  1.00  0.00    +0.028 A 
ATOM     12  C   UNL     1       2.904   0.351   1.494  1.00  0.00    +0.002 A 
ATOM     13  C   UNL     1       3.570  -0.221  -0.746  1.00  0.00    +0.002 A 
ATOM     14  C   UNL     1       3.908   0.097   0.566  1.00  0.00    +0.000 A 
ENDBRANCH   6   9
TORSDOF 1
