REMARK SMILES O=C(CCCCCCC(=O)Nc1ccccc1)NO
REMARK SMILES IDX 5 1 6 2 7 3 8 4 9 5 11 6 10 7 12 9 15 10 14 11 16 12 13 13
REMARK SMILES IDX 17 14 4 15 3 16 2 17 1 18 18 19 19 21
REMARK H PARENT 11 8 18 20 19 22
ROOT
ATOM      1  C   UNL     1      -2.342  -0.484  -0.284  1.00  0.00    +0.001 C 
ENDROOT
BRANCH   1   2
ATOM      2  C   UNL     1      -1.528  -1.743   0.022  1.00  0.00    +0.001 C 
BRANCH   2   3
ATOM      3  C   UNL     1      -0.118  -1.712  -0.575  1.00  0.00    +0.010 C 
BRANCH   3   4
ATOM      4  C   UNL     1       0.792  -0.671   0.076  1.00  0.00    +0.100 C 
BRANCH   4   5
ATOM      5  C   UNL     1       2.215  -0.725  -0.465  1.00  0.00    +0.224 C 
ATOM      6  N   UNL     1       3.040   0.167   0.204  1.00  0.00    -0.326 N 
ATOM      7  O   UNL     1       2.535  -1.470  -1.383  1.00  0.00    -0.275 OA
ATOM      8  H   UNL     1       2.615   0.710   0.943  1.00  0.00    +0.169 HD
BRANCH   6   9
ATOM      9  C   UNL     1       4.412   0.404  -0.020  1.00  0.00    +0.041 A 
ATOM     10  C   UNL     1       7.140   0.997  -0.335  1.00  0.00    +0.000 A 
ATOM     11  C   UNL     1       6.529   0.046  -1.149  1.00  0.00    +0.002 A 
ATOM     12  C   UNL     1       6.393   1.655   0.637  1.00  0.00    +0.002 A 
ATOM     13  C   UNL     1       5.171  -0.249  -0.992  1.00  0.00    +0.026 A 
ATOM     14  C   UNL     1       5.036   1.360   0.794  1.00  0.00    +0.026 A 
ENDBRANCH   6   9
ENDBRANCH   4   5
ENDBRANCH   3   4
ENDBRANCH   2   3
ENDBRANCH   1   2
BRANCH   1  15
ATOM     15  C   UNL     1      -3.769  -0.603   0.255  1.00  0.00    +0.010 C 
BRANCH  15  16
ATOM     16  C   UNL     1      -4.595   0.639  -0.072  1.00  0.00    +0.102 C 
BRANCH  16  17
ATOM     17  C   UNL     1      -6.005   0.546   0.469  1.00  0.00    +0.243 C 
ATOM     18  O   UNL     1      -6.436  -0.385   1.146  1.00  0.00    -0.273 OA
ATOM     19  N   UNL     1      -6.791   1.626   0.131  1.00  0.00    -0.238 N 
ATOM     20  H   UNL     1      -6.389   2.533  -0.079  1.00  0.00    +0.198 HD
BRANCH  19  21
ATOM     21  O   UNL     1      -8.072   1.642   0.736  1.00  0.00    -0.289 OA
ATOM     22  H   UNL     1      -8.085   0.789   1.225  1.00  0.00    +0.246 HD
ENDBRANCH  19  21
ENDBRANCH  16  17
ENDBRANCH  15  16
ENDBRANCH   1  15
TORSDOF 9
